data_global
_chemical_name_mineral 'Forsterite'
loop_
_publ_author_name
'Takeuchi Y'
'Yamanaka T'
'Haga N'
'Hirano M'
_journal_name_full 'Materials Science of the Earth's Interior'
_journal_volume 1984 
_journal_year 1984
_journal_page_first 191
_journal_page_last 231
_publ_section_title
;
 High-temperature crystallography of olivines and spinels
 Note: T = 1050 C
;
_database_code_amcsd 0014398
_chemical_formula_sum 'Mg2 Si O4'
_cell_length_a 4.7951
_cell_length_b 10.343
_cell_length_c 6.0571
_cell_angle_alpha 90
_cell_angle_beta 90
_cell_angle_gamma 90
_cell_volume 300.406
_exptl_crystal_density_diffrn      3.111
_symmetry_space_group_name_H-M 'P b n m'
loop_
_space_group_symop_operation_xyz
  'x,y,z'
  'x,y,1/2-z'
  '-x,-y,1/2+z'
  '1/2+x,1/2-y,1/2+z'
  '1/2-x,1/2+y,1/2-z'
  '1/2-x,1/2+y,z'
  '1/2+x,1/2-y,-z'
  '-x,-y,-z'
loop_
_atom_site_label
_atom_site_fract_x
_atom_site_fract_y
_atom_site_fract_z
_atom_site_U_iso_or_equiv
Mg1   0.00000   0.00000   0.00000   0.02900
Mg2   0.99300   0.27950   0.25000   0.02850
Si   0.42700   0.09440   0.25000   0.01862
O1   0.76330   0.09120   0.25000   0.02622
O2   0.22080   0.44970   0.25000   0.02533
O3   0.28200   0.16310   0.03570   0.02774
loop_
_atom_site_aniso_label
_atom_site_aniso_U_11
_atom_site_aniso_U_22
_atom_site_aniso_U_33
_atom_site_aniso_U_12
_atom_site_aniso_U_13
_atom_site_aniso_U_23
Mg1 0.02586 0.03360 0.02769 -0.00176 -0.00338 -0.00603
Mg2 0.03029 0.02276 0.03271 0.00126 0.00000 0.00000
Si 0.01526 0.01853 0.02193 0.00050 0.00000 0.00000
O1 0.01701 0.02872 0.03290 0.00126 0.00000 0.00000
O2 0.02563 0.01734 0.03253 0.00025 0.00000 0.00000
O3 0.02528 0.02872 0.02955 0.00050 0.00000 0.00698

